     645
 i =        0, time =        0.000, E =     -6587.1250158002
  C        17.3342337164       18.0132887790        6.6883962619
 Cl        15.8307381140       18.0435305748        7.6912518422
 Cl        18.2757108950       16.4611353621        6.8672644463
 Cl        18.3238602701       19.4365209723        7.1597394769
  H        17.0428329592       18.1115202245        5.6419126832
  C        19.5137142469        1.0850482927        5.4406715653
 Cl        19.9798139677        0.9462630672        3.6823458807
 Cl        20.9554395927        1.2501841546        6.4704275960
 Cl        18.3234547244       -0.2163211976        5.9976790994
  H        18.9590869588        2.0241067437        5.5265208173
  C        22.9250279764        2.8550204198       16.3196958871
 Cl        24.4166864423        3.8246765278       16.0115978537
 Cl        22.2080040794        3.2143918286       17.9390686756
 Cl        23.2878440817        1.0691526235       16.1798284594
  H        22.1917478997        3.0962362417       15.5534143548
  C        12.2574557832       15.4780428787        1.4353173486
 Cl        13.7723482858       14.9090408423        2.2013532923
 Cl        11.3271803482       16.4297905969        2.6623089215
 Cl        11.2700612112       14.0900511552        0.7789663070
  H        12.5059134884       16.1299459051        0.6026665831
  C        11.0863761812        3.7777266311        9.8975443533
 Cl        12.5048630703        4.4459123233       10.7807801054
 Cl        10.5865342785        4.8722985202        8.5462460258
 Cl         9.7466576533        3.3999749285       11.0616551673
  H        11.3703858136        2.8254148250        9.4606476275
  C        14.2520610422       18.4960398011        3.2191125835
 Cl        13.3945569234       19.5409787797        1.9790750734
 Cl        14.4588856612       19.3439050039        4.8005367280
 Cl        15.8679093958       17.9267307069        2.6220521172
  H        13.6313462383       17.6186433480        3.3724499832
  C         1.6462643830       14.3395996069        6.5335685822
 Cl        -0.0668177624       14.8670698856        6.7370664312
 Cl         2.0699844148       13.0041559218        7.6833020348
 Cl         2.7978232390       15.7184949919        6.7630441121
  H         1.7664806625       13.9587382038        5.5220819642
  C        23.0523931881        1.0130487716       12.2124789192
 Cl        24.6222318597        1.9002943618       12.4438796381
 Cl        22.9678131402        0.0673310263       10.6709223280
 Cl        21.5938427384        2.1055040606       12.3336188354
  H        22.9656995195        0.3086829414       13.0358689292
  C        20.8328130293       22.0336823588       18.4872522401
 Cl        20.2770555910       22.4944424347       16.8298037365
 Cl        22.6549892128       22.1635983309       18.6457100875
 Cl        20.2829609537       20.3716716166       18.8898584576
  H        20.3997338225       22.7289155609       19.2084084399
  C         9.7489194720       -0.5725306182        9.5018084968
 Cl        11.3250688103        0.1600928789       10.0676357631
 Cl         9.6769940402       -0.5612879152        7.6969887081
 Cl         8.3103871185        0.2573014372       10.2380397999
  H         9.7379582281       -1.6095944321        9.8409334436
  C         4.3692072845       18.7868030380        0.7694233963
 Cl         5.3694476290       19.2711906554        2.1860384878
 Cl         3.9809401183       20.2412220661       -0.2613380511
 Cl         2.8135456552       18.0088121382        1.2755489744
  H         4.9468876541       18.0852093095        0.1609708361
  C        23.7529011373       23.8500404340       14.4837376994
 Cl        22.3583128521       23.4857819365       13.3630425914
 Cl        25.1853252052       24.5069414257       13.5865750658
 Cl        24.1720022457       22.3906063861       15.4575501356
  H        23.4086047310       24.6102777525       15.1779290573
  C         9.2285843276       19.4353842093        7.8121986586
 Cl         9.8506363691       19.8059195510        6.1650609814
 Cl         7.5817578098       18.6966871621        7.7180078083
 Cl         9.2670611410       20.9363846927        8.8810321280
  H         9.8960657144       18.7137985475        8.2744812243
  C         6.3082209701       14.1473771467        9.3759688619
 Cl         6.1231169534       13.5226256426       11.0595676586
 Cl         5.7221757585       15.8610169260        9.1951214559
 Cl         5.4577212260       13.0851294871        8.1790939570
  H         7.3674939877       14.1491758482        9.1271018246
  C         3.8549112483        5.4248647611       21.1049085606
 Cl         4.6696765655        3.9087702271       20.5367129653
 Cl         3.5347459403        5.3867088745       22.9002482880
 Cl         2.3138158709        5.7160733950       20.1848861554
  H         4.5222220104        6.2689167505       20.9098199477
  C        14.5275904269       19.5951862341       17.2810337888
 Cl        16.1507169547       20.2786020594       17.5322627005
 Cl        14.5850292464       18.1422300415       16.2091309112
 Cl        13.3147625707       20.8403511842       16.7019094789
  H        14.1991648057       19.2887096725       18.2599231880
  C        17.5442355082       13.9541377998        1.8790615470
 Cl        16.8937469802       14.9546440221        0.5267480338
 Cl        18.3108821903       12.4635679889        1.2116955777
 Cl        16.2474748253       13.5007390387        3.0503126860
  H        18.2991417881       14.5272864501        2.4069289550
  C         7.4738858212        6.1163050447       14.2905562470
 Cl         6.1215497366        7.2620269556       14.0348890890
 Cl         6.9470560527        4.3924251103       14.0753361187
 Cl         8.3651543201        6.4221113449       15.8329113852
  H         8.2045787236        6.2837174962       13.5158807705
  C        17.5367017051        8.9663643369        2.1968226083
 Cl        17.7703600067        9.2463648702        0.4034700237
 Cl        15.9935074230        9.7292100430        2.7417578313
 Cl        18.9661462205        9.5150388322        3.1804601652
  H        17.4403313621        7.8906642223        2.3481241599
  C         5.4772837009       20.7830715014       22.5289562914
 Cl         7.1013888444       19.9775897126       22.4380351729
 Cl         4.1821365656       19.6723002075       21.9035291075
 Cl         5.4735611876       22.3509374768       21.6448299140
  H         5.2767451445       20.9808752382       23.5794822616
  C        19.2413784868       13.8636981030       22.8479920031
 Cl        20.3876633281       14.1446904697       21.4331195686
 Cl        17.7345070659       14.8398219964       22.6659879027
 Cl        20.0824793096       14.2164397136       24.3925175528
  H        18.9794881347       12.8064913710       22.8140051954
  C        12.7486864088       13.7565605684       11.8576964829
 Cl        12.9407368567       15.3804880263       11.1095477305
 Cl        12.1859052656       13.9255214227       13.5578954486
 Cl        14.2786423759       12.7728886441       11.7296053917
  H        11.9861937625       13.2121145552       11.3071793981
  C        24.8375520169       -0.1589881105        4.6652707713
 Cl        24.8847367468       -0.5429913813        6.4123652783
 Cl        24.5924503478        1.6144048265        4.3639531700
 Cl        23.5595526309       -1.1241693484        3.8109740863
  H        25.7989069983       -0.4376677849        4.2429669991
  C         4.4631748739       15.4302959973        3.5121010919
 Cl         5.4788322786       16.5515460535        4.4653297990
 Cl         4.3087764899       13.7612389349        4.2257060680
 Cl         5.1216224800       15.1919319331        1.8505736870
  H         3.4689703067       15.8694740009        3.4513489960
  C        18.0846770973       18.3524693901       21.7602410354
 Cl        17.0207151722       19.3862117480       20.7113639586
 Cl        18.1162631422       19.0164787183       23.4646872828
 Cl        19.7639215815       18.2333617421       21.1509701748
  H        17.6499573430       17.3541280524       21.7954757619
  C        10.4293549175       14.6492200942        8.7191422470
 Cl         9.3465364866       16.0455240391        8.4016835449
 Cl        10.6389128086       13.6187318462        7.2350760264
 Cl         9.7735280765       13.6579879659       10.1016909671
  H        11.4172472873       15.0194922435        8.9925143646
  C        18.5540387827        4.1656927742        0.5079415529
 Cl        18.5863395101        5.9439678190        0.9756909602
 Cl        17.0386618817        3.3581108426        1.0897365151
 Cl        20.0290804115        3.3440801762        1.1023078302
  H        18.5529772485        4.1309590003       -0.5757353875
  C         9.0363882967        6.2184960072        2.7942451101
 Cl         9.2759216543        7.0247311627        1.1965856334
 Cl         7.8244072222        7.1041123633        3.8135961516
 Cl        10.5949429668        6.0202101468        3.6933076226
  H         8.6324159575        5.2306429813        2.5899778506
  C         5.2747078808        9.6786774943       10.1076143677
 Cl         5.2553447432       10.0623704025       11.8829236081
 Cl         4.8695422477        7.9245092497        9.8005033474
 Cl         6.8738454978       10.1162931650        9.3947383041
  H         4.5126483843       10.2862697995        9.6189132215
  C        14.5367932003        1.2625988787        7.0830885116
 Cl        14.2623575901       -0.4920896404        7.4392011865
 Cl        16.1674057512        1.8485195101        7.6159902832
 Cl        13.2501670046        2.2955419340        7.8233664969
  H        14.4562999614        1.3873181921        5.9996258011
  C        11.7151387831       13.4731600937       16.9538867619
 Cl        11.2317636394       15.1791428849       16.5118260519
 Cl        11.6347378428       13.1411814258       18.7150091853
 Cl        13.3929296190       13.0865510826       16.4272045293
  H        11.0179810471       12.8074590815       16.4332729654
  C        18.2022244444       13.4448724466       10.0783404400
 Cl        19.7918779583       14.0304417621        9.4667729669
 Cl        18.4353502540       11.7930437362       10.7709318196
 Cl        16.9715231962       13.4442513551        8.7875089029
  H        17.8890325420       14.1248541578       10.8642449401
  C        23.0734826211       11.7296800963        1.1604250281
 Cl        21.4702321682       10.9154131986        0.7976624680
 Cl        23.1886007441       12.1782893720        2.9037295873
 Cl        23.3871646004       13.1719058279        0.1005204804
  H        23.8514816241       10.9981399795        0.9479522030
  C        22.7368572205       17.6440103200        7.5649833410
 Cl        21.7938324796       18.1251089849        6.1035562755
 Cl        21.6763066837       17.5818775534        9.0258575444
 Cl        24.1149538402       18.7924480191        7.8626750811
  H        23.1481357158       16.6475596738        7.3963417270
  C         2.2576429070       19.2894415536       14.2624424307
 Cl         1.7895432245       17.5394160727       14.0075479559
 Cl         0.8485894569       20.3375882510       14.6355765240
 Cl         3.0873712559       19.9249959225       12.7965218766
  H         2.9522666963       19.3282703692       15.0974141290
  C        17.2986627189       17.2082074464       11.2748014048
 Cl        16.7390594877       18.9290982050       11.1499889164
 Cl        18.8092696060       16.9094202999       10.3126932438
 Cl        16.0171372681       16.0760054547       10.7464781530
  H        17.5095681122       16.9981256107       12.3218861052
  C         8.1893000086       11.9527806682       21.6542805665
 Cl         6.5850429414       11.1223513036       21.9238272668
 Cl         9.0358716506       11.4213399751       20.1741141680
 Cl         9.2369975748       11.7105226446       23.0950882304
  H         7.9892701080       13.0166819307       21.5441871083
  C        14.1320125654       16.8341406916       23.7292786567
 Cl        14.9684162764       16.9522223635       22.1178544365
 Cl        14.9407905409       17.8204582542       24.9929718185
 Cl        13.9364188795       15.0826289032       24.2229979988
  H        13.1274142184       17.2311393040       23.5952368537
  C        15.5738183740       23.8869002640       -0.6917828178
 Cl        15.7833684212       22.0998672134       -0.8629635195
 Cl        17.1874049735       24.7169744115       -0.6309280306
 Cl        14.6504592812       24.2778344368        0.8034778727
  H        15.0228524029       24.2498513586       -1.5638174106
  C        12.2420234630       10.9818729000        4.8058602714
 Cl        10.7580863712       10.5614096654        3.8792635938
 Cl        12.9754612038       12.5113938337        4.1265780641
 Cl        13.3614748562        9.5775795248        4.7158297968
  H        11.9889203883       11.1603199104        5.8516738157
  C        17.8799433225        8.3659521051       18.1835780729
 Cl        17.7152052016        9.8226163688       19.2224671900
 Cl        18.7403146911        8.8641326561       16.6758061829
 Cl        16.2730481574        7.5962658419       17.9450236672
  H        18.5288134413        7.6444290280       18.6654393472
  C        15.5405791968        6.2554184321       10.4340181326
 Cl        16.5815083427        6.6643478231        9.0451705858
 Cl        16.0937464637        7.1974804862       11.8593044196
 Cl        15.6198430648        4.4882416565       10.7691695079
  H        14.5001929293        6.5313632650       10.2285984609
  C         9.0041821359       18.0779577268        0.6430834218
 Cl        10.1448604398       17.2379690171       -0.4872114472
 Cl         8.0198679413       16.9233159483        1.6087541780
 Cl         7.9356933488       19.1551950334       -0.3479076802
  H         9.6007480642       18.6847049782        1.3239395545
  C         1.3016412683        8.7862987958       14.6491245541
 Cl         2.8922282817        8.9066499471       13.8273701101
 Cl         0.8224631465        7.0568357441       14.9730464284
 Cl         0.0328038763        9.6447877254       13.6618124096
  H         1.3614227895        9.2833378577       15.6154400658
  C        23.9564027442        7.6996983737        3.2001990453
 Cl        24.5298353324        6.2017171559        4.0452053436
 Cl        23.2473925483        8.9093254487        4.3466579075
 Cl        22.7849214248        7.3033132725        1.8444028513
  H        24.8223853580        8.1707175447        2.7419167092
  C        11.7287922424        2.0714356945        2.7092039552
 Cl        11.5457451926        1.8404568439        4.5006791376
 Cl        10.1293326183        1.8943700052        1.8758367104
 Cl        12.9827240402        0.9839077325        1.9769396170
  H        12.0443342510        3.0998024439        2.5496077038
  C         5.4758173707       10.2516728933       18.7562566821
 Cl         6.8934750384        9.1682745446       18.4902900535
 Cl         4.2220836620        9.4668694637       19.7988373157
 Cl         4.7106727572       10.7560134276       17.2017819882
  H         5.8313732679       11.1491771979       19.2662001724
  C         2.4046008905        0.9594699296        2.8087949764
 Cl         0.9035508414        0.1821677233        2.1644629459
 Cl         2.6014645356        0.7527002077        4.5970058688
 Cl         2.3876907435        2.7308247133        2.3702788625
  H         3.2560878467        0.4909067601        2.3177548914
  C        20.9764249001       11.6295787382       13.7840814439
 Cl        19.6934240734       11.1646100086       14.9565981442
 Cl        22.6634115555       11.3646584215       14.4299313029
 Cl        20.7633126558       13.3499923915       13.3576778795
  H        20.8663740633       11.0229126224       12.8897687008
  C        12.1861060278        8.6604682902       17.8134776943
 Cl        12.7822117524        9.8232707853       19.0800019578
 Cl        10.3904830130        8.8473617443       17.5799904740
 Cl        12.6504025134        6.9500759775       18.2151835438
  H        12.6708370291        8.9229532089       16.8759121606
  C        22.4927276465       16.5331497488       22.9340258847
 Cl        22.8380270024       17.1175237481       21.2515427356
 Cl        22.0697415098       17.8821987147       24.0757322034
 Cl        23.8979143501       15.5604044036       23.5433299026
  H        21.6359436786       15.8729931630       22.8845987157
  C         1.2066422706        9.5003769317       22.9468337694
 Cl         0.1012046094        8.2795227148       22.1876010881
 Cl         0.6821335437       11.2044413609       22.6479860261
 Cl         2.9098396253        9.2035161490       22.3981413994
  H         1.1490583414        9.3360561274       24.0164464768
  C        14.2721864011        8.2610376383       22.5299802056
 Cl        15.1147024365        7.8015612786       24.1065793368
 Cl        13.2473382638        6.9334752540       21.8652005220
 Cl        15.5466889736        8.7839167680       21.3815196313
  H        13.6174132708        9.0990351116       22.7621054633
  C        17.1840525943        4.6140011689       14.5076752064
 Cl        15.3850451646        4.5351865353       14.2665158575
 Cl        17.7911727092        6.1915761110       15.1192526281
 Cl        18.0878387260        4.2165689161       13.0163552801
  H        17.4181981524        3.8658753707       15.2520921358
  C        14.1334093415        4.6712647180        3.8480228813
 Cl        15.2732728926        5.7946045818        2.9949925443
 Cl        13.5425979031        5.2861028241        5.4391768042
 Cl        14.8961576729        3.0237059914        4.0420368400
  H        13.2704766391        4.5728723184        3.2008293059
  C         8.1831975969       14.8199183733        4.5955192043
 Cl         9.3955246676       13.7331130665        3.8187734382
 Cl         8.8990679560       16.4628922376        4.9695191730
 Cl         7.4661793094       14.0552565301        6.0387155877
  H         7.3891422272       14.9794062010        3.8671632411
  C        20.7307911846        4.8581294857        4.9126304077
 Cl        19.2387058088        4.6974476134        3.9421338055
 Cl        21.0836873221        6.6160619797        5.1390127743
 Cl        22.0445657864        3.9535314152        4.0843000893
  H        20.5680621084        4.4168904031        5.8936027655
  C         7.2074870322       15.1402001029       18.7285565586
 Cl         6.0853422115       13.9268284736       19.4980004324
 Cl         8.8392796154       14.4402446904       18.6996330558
 Cl         7.1928251676       16.7543857244       19.5572035014
  H         6.8534206577       15.3066205079       17.7140370243
  C        15.2738659083       24.6381113376       17.5751944414
 Cl        14.1498493194       24.3558295036       18.9811354695
 Cl        14.4117175470       24.4994069775       15.9807439991
 Cl        16.6369139173       23.4608409219       17.6105412228
  H        15.6837977168       25.6467637127       17.6666157333
  C         8.7257613152        1.8630819158       16.2759314203
 Cl         6.9539161495        1.6548546672       15.9850463903
 Cl         9.5087789913        0.2881640920       16.7535287286
 Cl         8.9944219919        3.1659256587       17.5197654135
  H         9.1956598502        2.2009221623       15.3494864859
  C         9.8348914390       20.3763459100       16.9463541730
 Cl        10.0294405747       18.8721385854       15.9306571418
 Cl         8.4176738778       20.1910449855       18.0542835143
 Cl         9.6866713082       21.8416111483       15.8936853646
  H        10.7340359320       20.4877836200       17.5461266248
  C        10.6788925493       15.3309655906       22.6287699818
 Cl        11.7609865947       14.2977278925       21.6343110842
 Cl         8.9196878726       15.1534281076       22.2284054026
 Cl        11.0751541538       17.1005916937       22.4045920745
  H        10.8186739275       15.0563454305       23.6712276605
  C         6.5732370285       22.0350795349        6.6629383961
 Cl         7.2054322241       23.7128409294        6.6133927743
 Cl         6.8881195108       21.1532891829        5.0978816812
 Cl         4.8424689478       22.0592410081        7.0763893951
  H         7.1074020973       21.4957673678        7.4367391941
  C        18.5397089904        0.7811305345       15.5472340635
 Cl        19.7001129206        2.0988846812       15.1188509266
 Cl        16.8213320655        1.4284944208       15.6638585747
 Cl        19.1099292927       -0.0972113157       17.0060821100
  H        18.5308368816        0.0735102000       14.7226539925
  C        15.8042150116       12.4536878862       20.1493635485
 Cl        15.5485742190       12.0735677818       21.8916993957
 Cl        17.5494705736       12.8547737186       19.8352030100
 Cl        14.7191469465       13.7951893461       19.6724987306
  H        15.5579957173       11.5777418469       19.5466351604
  C        18.9511442211       15.9587873625       17.4607732123
 Cl        17.3102879755       16.5524627519       18.0539980314
 Cl        20.2785045399       17.0264658010       18.0612002103
 Cl        19.1148762210       15.8116666307       15.6527820307
  H        19.0964461173       14.9657088808       17.8817014612
  C        14.3267897674       21.8145178237       13.6184635013
 Cl        15.4749297952       22.4874604433       12.4218521605
 Cl        14.1105943236       20.0339285360       13.3522492205
 Cl        12.8004063649       22.7973110531       13.4959420881
  H        14.7211564132       21.9597563571       14.6273151759
  C         3.3409687464       21.9150808386        3.1184083461
 Cl         1.7880195913       22.7204726877        2.6641959137
 Cl         3.0746137847       20.6954363711        4.4267441932
 Cl         4.6075867320       23.1736770198        3.5486766120
  H         3.7142108494       21.3928830634        2.2447797408
  C        12.6888537978        6.8946129326        0.2353920559
 Cl        12.8137659054        7.9300634744        1.6879738333
 Cl        11.5403845738        7.5598247566       -1.0327708768
 Cl        12.3382073007        5.1601560964        0.7125912428
  H        13.6587465402        6.8694178337       -0.2473167270
  C        18.7478316729       22.4886647669        9.7376208042
 Cl        18.4657681079       22.9820547566       11.4682512362
 Cl        17.1902686284       22.1735330256        8.8785568831
 Cl        19.8507648304       21.0498688075        9.7497523598
  H        19.2557707956       23.2969050011        9.2212403582
  C        17.7992853901        0.1908558647       10.9170593760
 Cl        17.5282936706        1.9179353019       11.2315602824
 Cl        19.1602929555       -0.0254176395        9.7003049354
 Cl        16.2440676825       -0.5989090211       10.4464422523
  H        18.1465043246       -0.2878439308       11.8295053707
  C        20.2322582040        4.2251927185        9.3521635523
 Cl        19.9173489844        5.3301139281       10.7508906625
 Cl        21.3927051806        5.0159148359        8.1851511836
 Cl        18.7110952571        3.8202112612        8.4829493123
  H        20.7067534281        3.3216103291        9.7272983870
  C        21.9719152000       20.7132375021        1.4032276100
 Cl        22.0589606872       20.2224105351        3.1213010048
 Cl        21.8946416253       22.5113534829        1.2058066064
 Cl        20.5499016902       19.8815148902        0.5947775185
  H        22.8708312883       20.3681560537        0.8923689835
  C        21.5164434243        9.0707402960       10.1765866690
 Cl        19.7452712721        8.8058053011       10.5978953373
 Cl        22.0539613106       10.7741484694       10.4876820164
 Cl        21.8825595616        8.5955499253        8.4726367227
  H        22.0980815793        8.4324238691       10.8438815209
  C         1.0666278201        9.4968925097        6.3416885839
 Cl        -0.0258573415       10.8854619404        6.0361217790
 Cl         1.0829565549        8.4159302016        4.8917351749
 Cl         0.7081341383        8.5787322181        7.8707500573
  H         2.0698667258        9.8734768132        6.4596109076
  C        12.2425181109       18.0307852676       18.9640198689
 Cl        10.5103999127       17.7432060600       19.2982988981
 Cl        13.2501388096       16.5480102856       18.9625054740
 Cl        12.9344782363       19.2558404169       20.1428864656
  H        12.2884963702       18.4544063199       17.9630874102
  C        11.5755807184       22.1709847310       22.1458986545
 Cl        13.3241538226       21.8638019450       22.5453192181
 Cl        10.5641355073       20.7447706753       22.6170186204
 Cl        11.3730944977       22.5959390226       20.3874557704
  H        11.2479892751       23.0287449083       22.7304045997
  C         9.3243516878        7.4087798867       11.5133473073
 Cl        10.2648574354        7.8743773308       10.0636910643
 Cl        10.3884184412        6.5011413766       12.7103088265
 Cl         7.8531036782        6.4194923721       11.0918969535
  H         8.9780882282        8.3125696710       12.0112008572
  C         2.1259468191       12.9822822343       13.9918698124
 Cl         0.4626092613       13.6457364595       14.1502365745
 Cl         2.5914587433       12.0353801431       15.4719348132
 Cl         3.3055363929       14.3194230565       13.7410395861
  H         2.1658770095       12.3143189700       13.1297562626
  C         1.3119371839       14.1569216881        2.3702831483
 Cl         0.7742385772       15.6458855501        3.2808456925
 Cl         0.8604237911       14.2499669355        0.6319050273
 Cl         0.6865434507       12.6696637035        3.1917024906
  H         2.3934949895       14.1047039050        2.4091644176
  C         3.5466854307       20.4347423360       17.8013730141
 Cl         5.0355736420       19.4609321338       17.4260185424
 Cl         2.0616611028       19.3768506192       17.7648034598
 Cl         3.3235917586       21.7671364027       16.6334739839
  H         3.6453098659       20.8396817578       18.8112530878
  C         7.5631028812       11.6258806213        1.6944466885
 Cl         5.7656527570       11.5097538517        1.5621313810
 Cl         8.3242639926       12.2482860489        0.1720828257
 Cl         8.2111850972        9.9898443910        2.0933008800
  H         7.8243239078       12.3129827463        2.5000642873
  C         7.6452601692        0.8484454295       20.7871737889
 Cl         7.1164429103        1.3869640316       22.4480706847
 Cl         6.2588745924        0.9947965641       19.6353130201
 Cl         8.3134509563       -0.8300234619       20.8195608493
  H         8.4407289996        1.5200899371       20.4658740546
  C         5.3620564807       14.2000570321       23.6231612745
 Cl         3.9457705464       13.1533359330       24.0452932168
 Cl         6.1036703323       15.0414861773       25.0481463237
 Cl         4.8555109940       15.4172996012       22.3897021006
  H         6.1342328629       13.5487010974       23.2011502033
  C        12.0700294014       10.4516703372       13.0836122992
 Cl        11.1458188702       10.9067758442       11.5762039565
 Cl        12.8298049649        8.8528551588       12.8147076286
 Cl        11.0573609576       10.4019673140       14.5632207973
  H        12.8527058175       11.1924110600       13.2345150541
  C        14.6467576980        3.4259581667       21.3985119767
 Cl        15.6207515485        4.9742906288       21.3925884254
 Cl        13.0050219170        3.5246887327       20.6002555541
 Cl        14.4659651635        2.8615909197       23.1051400144
  H        15.2143989866        2.6815850766       20.8449823125
  C         0.6846046935       23.2429942613       19.8391007793
 Cl         1.6416781374       24.4997806549       20.6939357331
 Cl         1.3121669204       21.5927168116       20.2911404790
 Cl         0.6935927980       23.5124291667       18.0439481295
  H        -0.3550334836       23.2987288036       20.1654180674
  C        17.1463514822       11.8548958512        5.6578675051
 Cl        15.4796220674       12.4396419799        6.0950242422
 Cl        17.6664579313       10.5414080111        6.7627686790
 Cl        18.2537599273       13.2758902736        5.6581234261
  H        17.1012354159       11.4479719173        4.6538392853
  C         2.2196393011        5.4066251739       11.9120238595
 Cl         2.0492825599        7.0185259431       11.1306843679
 Cl         3.9639813809        5.0029527134       12.2197678966
 Cl         1.4455275194        4.1169170256       10.9046910890
  H         1.7150609959        5.4489217311       12.8766424587
  C         4.3438725710        5.7876795228       17.2079069811
 Cl         3.8644024365        4.6405673568       15.8795841187
 Cl         4.0254748665        7.5170202163       16.7639256791
 Cl         6.0834880304        5.5599209844       17.6344915071
  H         3.7387384444        5.5518744729       18.0778878938
  C        16.7944059359        3.5988729978       18.7034026041
 Cl        18.0684923589        4.4103525242       17.7428896353
 Cl        17.1999273567        1.8469993966       19.0927538120
 Cl        15.1687470947        3.7712280432       17.9278121865
  H        16.7520538166        4.1088100523       19.6546872102
  C        23.1764549509       19.7158437439       13.2197726844
 Cl        22.1862891635       20.0695636852       11.7437409573
 Cl        24.6167727157       18.7902892618       12.6935930731
 Cl        22.2784112280       18.8425105195       14.5564545260
  H        23.5008453334       20.6739115493       13.6260359078