#     Step Nr.          Time[fs]        Kin.[a.u.]          Temp[K]            Pot.[a.u.]        Cons Qty[a.u.]        UsedTime[s]
         0            0.000000         1.094451383       300.000000000        -6.564052893        -5.407654117         0.000000000
         1            1.000000         1.101831334       302.022917947        -6.570419839        -5.406620882         0.440000000
         2            2.000000         1.105578155       303.049958848        -6.573868775        -5.406305156         0.136000000
         3            3.000000         1.110142540       304.301102080        -6.579316367        -5.407161674         0.136000000
         4            4.000000         1.104209947       302.674919514        -6.574076749        -5.407814608         0.136000000
         5            5.000000         1.079237085       295.829609917        -6.548332235        -5.406994589         0.136000000
         6            6.000000         1.051083992       288.112567357        -6.517529834        -5.404297338         0.136000000
         7            7.000000         1.050623119       287.986237465        -6.517909930        -5.405095660         0.136000000
         8            8.000000         1.069191015       293.075882265        -6.539246102        -5.407827878         0.136000000
